8
Lattice="4.26242823 0.0 0.0 0.0 4.26242823 0.0 0.0 0.0 4.26242823" Properties=species:S:1:pos:R:3:spacegroup_kinds:I:1:momenta:R:3:forces:R:3 spacegroup="F m -3 m" unit_cell=conventional occupancy="_JSON {\"0\": {\"Fe\": 1}, \"1\": {\"O\": 1}}" energy=-50.99726867675781 free_energy=-50.99726867675781 stress="-0.12472682561796324 -0.013952432949614907 0.0013105103097786853 -0.013952432949614907 -0.2527253340152262 0.030243533016379314 0.0013105103097786853 0.030243533016379314 -0.12566357341419046" pbc="T T T"
Fe       0.20692171      -0.08725007       0.04085242        0       2.26735303       5.96089805      -1.69815206      -0.75182259       0.87874544       0.24972238
Fe       2.05205896       2.03621141      -0.05573753        0       4.40678847      -1.64525479      -0.14910733      -0.19442371       1.01154375       0.23312622
Fe       2.15200071       0.08297779       2.19807661        0       8.46101135      -0.18053484      -5.17746508      -0.80015647       0.09217842       0.03982928
Fe      -0.09194633       2.01635512       2.00875086        0     -10.77499599      -0.90214275       7.55350615       0.31775558       6.17395401      -0.28618324
O       -0.14932220       0.33972849       2.30369763        1      -0.15040339      -1.85593105      -0.58150405       1.55249643      -6.47949600       0.01819652
O        2.31547574       0.02208887       0.09676071        1      -4.56501578      -2.27539327       0.03680468      -1.17017305      -0.07287998      -0.15718867
O       -0.19443501       2.24874477      -0.04455462        1       2.35668365       3.25720454       1.50961384       1.51024890      -0.75699323      -0.01269385
O        2.05240025       2.34197317       2.12009990        1      -2.00142203      -2.35884448      -1.49369545      -0.46392483      -0.84705180      -0.08480866
