2
Lattice="2.66137 0.0 0.0 0.0 2.66137 0.0 0.0 0.0 2.66137" Properties=species:S:1:pos:R:3:spacegroup_kinds:I:1:momenta:R:3:forces:R:3 spacegroup="P m -3 m" unit_cell=conventional occupancy="_JSON {\"0\": {\"Mg\": 1}, \"1\": {\"O\": 1}}" energy=-10.385040283203125 free_energy=-10.385040283203125 stress="-0.006423600215356808 -0.007281713523958788 0.005365682317287011 -0.007281713523958788 -0.005310016897649046 0.004535375862910079 0.005365682317287011 0.004535375862910079 -0.004176842852220486" pbc="T T T"
Mg      -4.27161321      -1.09257182       0.02403876        0       0.73782591      -2.50581998      -0.55598944       0.06200832       0.05633057      -0.04456259
O        7.81131163       2.98780913       1.29111258        1      -0.73782547       2.50582018       0.55598950      -0.06200832      -0.05633067       0.04456263
